                               Psi4 1.6 release

  ==> Input File <==

--------------------------------------------------------------------------
X = """
    C           -0.982670359616    -0.237182946316     0.048843788460    12.000000000000
    C           -0.903195686167    -1.619252449463     0.120151838033    12.000000000000
    C           -2.056653979502    -2.359718604650     0.332272668849    12.000000000000
    C           -3.284574318298    -1.735105444927     0.471539043501    12.000000000000
    C           -3.357939604935    -0.353002560472     0.396623090792    12.000000000000
    C           -2.212558280228     0.395069853837     0.186755022549    12.000000000000
    N            1.811443497294    -0.458797905322    -0.314783199784    14.003074004430
    SE           0.542969771898     0.875404044485    -0.252869156381    79.916521800000
    H            4.492663902265     0.976764112359     0.674454489765     1.007825032230
    H            3.720358607393    -0.995021531985    -0.135953390305     1.007825032230
    C            3.011934571549    -0.185018222271    -0.057720565464    12.000000000000
    N            3.583620112622     1.011818947694     0.268739910224    14.003074004430
    H            2.992742646946     1.722415469072     0.648146718897     1.007825032230
    H           -4.172619534058    -2.316164887330     0.635268343346     1.007825032230
    H           -2.282244671255     1.466624431606     0.131147344335     1.007825032230
    H            0.043805557571    -2.105920379272     0.008138335230     1.007825032230
    H           -1.990730482561    -3.430684653470     0.386878411739     1.007825032230
    H           -4.304076406951     0.144774778210     0.501216308489     1.007825032230
"""

Geom = "0 1\n\n"
for L in X.split('\n'):
    Row = L.split()
    if len(Row)==5:
        El,x,y,z,_ = tuple(Row)
        x,y,z = float(x), float(y), float(z)
        Geom += "%2s %9.5f  %9.5f  %9.5f \n"%(El, x, y, z)

print(Geom)

geometry(Geom)

set basis def2-msvp
set opt_coordinates both

optimize('scf')

--------------------------------------------------------------------------

    Molecular point group: c1
  Charge       = 0
  Multiplicity = 1
  Basis Set: DEF2-MSVP
    Blend: DEF2-MSVP
  Basis Set: (DEF2-MSVP AUX)
    Blend: DEF2-UNIVERSAL-JKFIT

    Orbital Energies [Eh]
    ---------------------

    Doubly Occupied:

       1A   -460.796598     2A    -60.623448     3A    -54.240304
       4A    -54.239651     5A    -54.238584     6A    -15.587649
       7A    -15.562845     8A    -11.325469     9A    -11.262869
      10A    -11.234441    11A    -11.232808    12A    -11.230979
      13A    -11.227509    14A    -11.226101    15A     -8.905560
      16A     -6.644454    17A     -6.640625    18A     -6.633728
      19A     -2.635552    20A     -2.633763    21A     -2.625582
      22A     -2.621181    23A     -2.620091    24A     -1.277704
      25A     -1.168959    26A     -1.152814    27A     -1.029036
      28A     -1.015536    29A     -0.917113    30A     -0.831368
      31A     -0.821589    32A     -0.781500    33A     -0.737191
      34A     -0.697209    35A     -0.657038    36A     -0.626073
      37A     -0.624290    38A     -0.591743    39A     -0.565309
      40A     -0.554543    41A     -0.549789    42A     -0.509490
      43A     -0.496844    44A     -0.463601    45A     -0.422521
      46A     -0.384652    47A     -0.360814    48A     -0.334141
      49A     -0.279476

  @DF-RHF Final Energy: -2778.12898112814673

   => Energetics <=

    Nuclear Repulsion Energy =            754.2171077135667474
    One-Electron Energy =               -5357.0119021765131038
    Two-Electron Energy =                1824.6658133348000774
    Total Energy =                      -2778.1289811281467337
 Dipole X            :          8.4673878           -7.5355297            0.9318581
 Dipole Y            :         14.3845251          -14.1116583            0.2728668
 Dipole Z            :         -4.7836302            5.5184587            0.7348285
 Magnitude           :                                                    1.2176981
    Molecular point group: c1
  Basis Set: DEF2-MSVP
    Blend: DEF2-MSVP
  Basis Set: (DEF2-MSVP AUX)
    Blend: DEF2-UNIVERSAL-JKFIT

  -Total Gradient:
     Atom            X                  Y                   Z
    ------   -----------------  -----------------  -----------------
       1        0.000185682351    -0.000072266127    -0.000081819654
       2        0.000093700404     0.000124036912    -0.000017038134
       3        0.000050359465    -0.000024618189     0.000014007366
       4       -0.000029158397     0.000062061081     0.000011199825
       5       -0.000088928469    -0.000046397363     0.000001525032
       6        0.000031897181     0.000093604355    -0.000009852750
       7       -0.000075988097    -0.000067207403     0.000040029179
       8       -0.000311611662    -0.000018662552     0.000132064738
       9        0.000064036671    -0.000010004893    -0.000003204660
      10        0.000064140201     0.000037649511    -0.000021279818
      11        0.000051715126    -0.000046938599    -0.000047051303
      12        0.000075641259    -0.000039456475    -0.000015871259
      13       -0.000042433951     0.000078637040     0.000022480921
      14        0.000049046010    -0.000005573578     0.000005164874
      15       -0.000010236608     0.000011927981     0.000001129226
      16       -0.000011468536    -0.000082046178     0.000003617114
      17       -0.000059017970    -0.000005485495     0.000006850457
      18       -0.000037375004     0.000010740042    -0.000041951127

  **** Optimization is complete! (in 1 steps) ****
    Final optimized geometry and variables:
    Molecular point group: c1

    Geometry (in Angstrom), charge = 0, multiplicity = 1:

    C           -0.982669699724    -0.237178346654     0.048840332285
    C           -0.903199699724    -1.619248346654     0.120150332285
    C           -2.056649699724    -2.359718346654     0.332270332285
    C           -3.284569699724    -1.735108346654     0.471540332285
    C           -3.357939699724    -0.352998346654     0.396620332285
    C           -2.212559699724     0.395071653346     0.186760332285
    N            1.811440300276    -0.458798346654    -0.314779667715
    SE           0.542970300276     0.875401653346    -0.252869667715
    H            4.492660300276     0.976761653346     0.674450332285
    H            3.720360300276    -0.995018346654    -0.135949667715
    C            3.011930300276    -0.185018346654    -0.057719667715
    N            3.583620300276     1.011821653346     0.268740332285
    H            2.992740300276     1.722421653346     0.648150332285
    H           -4.172619699724    -2.316158346654     0.635270332285
    H           -2.282239699724     1.466621653346     0.131150332285
    H            0.043810300276    -2.105918346654     0.008140332285
    H           -1.990729699724    -3.430678346654     0.386880332285
    H           -4.304079699724     0.144771653346     0.501220332285

*** Psi4 exiting successfully. Buy a developer a beer!
